# vtk DataFile Version 2.0
mesh vtk data - converted from .off
ASCII
DATASET UNSTRUCTURED_GRID
POINTS 9 double
-1 -1 -1
-1 1 -1
1 -1 -1
1 1 -1
-1 -1 1
-1 1 1
1 -1 1
1 1 1
0.238918 0.111622 0.238918
CELLS 12 60
 4 1 4 0 8 
 4 1 5 8 3 
 4 7 8 5 3 
 4 7 6 8 3 
 4 7 6 5 8 
 4 8 5 4 6 
 4 1 5 4 8 
 4 1 8 2 3 
 4 8 6 2 3 
 4 8 4 2 6 
 4 8 4 0 2 
 4 1 8 0 2 
CELL_TYPES 12
10
10
10
10
10
10
10
10
10
10
10
10
POINT_DATA 9
SCALARS fixed int
LOOKUP_TABLE default
1
1
1
1
1
1
1
1
0
